phonopy:
  version: 2.1.4
  frequency_unit_conversion_factor: 15.633302
  configuration:
    eigenvectors: ".TRUE."
    dim: "3 3 1"
    band_labels: "\\Gamma K"
    band: "0.0 0.0 0.0   1/3 1/3 0.0"
    fc_symmetry: ".TRUE."
    force_constants: "READ"
    band_points: "501"

physical_unit:
  atomic_mass: "AMU"
  length: "Angstrom"
  force_constants: "eV/Angstrom^2"

supercell_matrix:
- [   3,   0,   0 ]
- [   0,   3,   0 ]
- [   0,   0,   1 ]

space_group:
  type: "P3m1"
  number: 156
  Hall_symbol: "P 3 -2\""

primitive_cell:
  lattice:
  - [     3.323343060957523,     0.000000000000000,     0.000000000000000 ] # a
  - [    -1.661671530478761,     2.878099516279951,     0.000000000000000 ] # b
  - [     0.000000000000000,     0.000000000000000,    39.999999911633964 ] # c
  points:
  - symbol: W  # 1
    coordinates: [  0.666666666666667,  0.333333333333333,  0.755104203016692 ]
    mass: 183.840000
  - symbol: Se # 2
    coordinates: [  0.666666666666667,  0.333333333333333,  0.958594848316281 ]
    mass: 78.960000
  - symbol: Se # 3
    coordinates: [  0.000000000000000,  0.000000000000000,  0.713371449665196 ]
    mass: 78.960000
  - symbol: Se # 4
    coordinates: [  0.000000000000000,  0.000000000000000,  0.796769240899820 ]
    mass: 78.960000
  - symbol: Se # 5
    coordinates: [  0.666666666666667,  0.333333333333333,  0.875288638485237 ]
    mass: 78.960000
  - symbol: Mo # 6
    coordinates: [  0.000000000000000,  0.000000000000000,  0.916932263986823 ]
    mass: 95.960000
  reciprocal_lattice: # without 2pi
  - [     0.300901827364124,     0.173725751028327,     0.000000000000000 ] # a*
  - [     0.000000000000000,     0.347451502056655,     0.000000000000000 ] # b*
  - [     0.000000000000000,     0.000000000000000,     0.025000000055229 ] # c*

unit_cell:
  lattice:
  - [     3.323343060957523,     0.000000000000000,     0.000000000000000 ] # a
  - [    -1.661671530478761,     2.878099516279951,     0.000000000000000 ] # b
  - [     0.000000000000000,     0.000000000000000,    39.999999911633964 ] # c
  points:
  - symbol: W  # 1
    coordinates: [  0.666666666666667,  0.333333333333333,  0.755104203016692 ]
    mass: 183.840000
    reduced_to: 1
  - symbol: Se # 2
    coordinates: [  0.666666666666667,  0.333333333333333,  0.958594848316281 ]
    mass: 78.960000
    reduced_to: 2
  - symbol: Se # 3
    coordinates: [  0.000000000000000,  0.000000000000000,  0.713371449665196 ]
    mass: 78.960000
    reduced_to: 3
  - symbol: Se # 4
    coordinates: [  0.000000000000000,  0.000000000000000,  0.796769240899820 ]
    mass: 78.960000
    reduced_to: 4
  - symbol: Se # 5
    coordinates: [  0.666666666666667,  0.333333333333333,  0.875288638485237 ]
    mass: 78.960000
    reduced_to: 5
  - symbol: Mo # 6
    coordinates: [  0.000000000000000,  0.000000000000000,  0.916932263986823 ]
    mass: 95.960000
    reduced_to: 6

supercell:
  lattice:
  - [     9.970029182872569,     0.000000000000000,     0.000000000000000 ] # a
  - [    -4.985014591436284,     8.634298548839853,     0.000000000000000 ] # b
  - [     0.000000000000000,     0.000000000000000,    39.999999911633964 ] # c
  points:
  - symbol: W  # 1
    coordinates: [  0.222222222222222,  0.111111111111111,  0.755104203016692 ]
    mass: 183.840000
    reduced_to: 1
  - symbol: W  # 2
    coordinates: [  0.555555555555555,  0.111111111111111,  0.755104203016692 ]
    mass: 183.840000
    reduced_to: 1
  - symbol: W  # 3
    coordinates: [  0.888888888888889,  0.111111111111111,  0.755104203016692 ]
    mass: 183.840000
    reduced_to: 1
  - symbol: W  # 4
    coordinates: [  0.222222222222222,  0.444444444444444,  0.755104203016692 ]
    mass: 183.840000
    reduced_to: 1
  - symbol: W  # 5
    coordinates: [  0.555555555555555,  0.444444444444444,  0.755104203016692 ]
    mass: 183.840000
    reduced_to: 1
  - symbol: W  # 6
    coordinates: [  0.888888888888889,  0.444444444444444,  0.755104203016692 ]
    mass: 183.840000
    reduced_to: 1
  - symbol: W  # 7
    coordinates: [  0.222222222222222,  0.777777777777778,  0.755104203016692 ]
    mass: 183.840000
    reduced_to: 1
  - symbol: W  # 8
    coordinates: [  0.555555555555555,  0.777777777777778,  0.755104203016692 ]
    mass: 183.840000
    reduced_to: 1
  - symbol: W  # 9
    coordinates: [  0.888888888888889,  0.777777777777778,  0.755104203016692 ]
    mass: 183.840000
    reduced_to: 1
  - symbol: Se # 10
    coordinates: [  0.222222222222222,  0.111111111111111,  0.958594848316281 ]
    mass: 78.960000
    reduced_to: 10
  - symbol: Se # 11
    coordinates: [  0.555555555555555,  0.111111111111111,  0.958594848316281 ]
    mass: 78.960000
    reduced_to: 10
  - symbol: Se # 12
    coordinates: [  0.888888888888889,  0.111111111111111,  0.958594848316281 ]
    mass: 78.960000
    reduced_to: 10
  - symbol: Se # 13
    coordinates: [  0.222222222222222,  0.444444444444444,  0.958594848316281 ]
    mass: 78.960000
    reduced_to: 10
  - symbol: Se # 14
    coordinates: [  0.555555555555555,  0.444444444444444,  0.958594848316281 ]
    mass: 78.960000
    reduced_to: 10
  - symbol: Se # 15
    coordinates: [  0.888888888888889,  0.444444444444444,  0.958594848316281 ]
    mass: 78.960000
    reduced_to: 10
  - symbol: Se # 16
    coordinates: [  0.222222222222222,  0.777777777777778,  0.958594848316281 ]
    mass: 78.960000
    reduced_to: 10
  - symbol: Se # 17
    coordinates: [  0.555555555555555,  0.777777777777778,  0.958594848316281 ]
    mass: 78.960000
    reduced_to: 10
  - symbol: Se # 18
    coordinates: [  0.888888888888889,  0.777777777777778,  0.958594848316281 ]
    mass: 78.960000
    reduced_to: 10
  - symbol: Se # 19
    coordinates: [  0.000000000000000,  0.000000000000000,  0.713371449665196 ]
    mass: 78.960000
    reduced_to: 19
  - symbol: Se # 20
    coordinates: [  0.333333333333333,  0.000000000000000,  0.713371449665196 ]
    mass: 78.960000
    reduced_to: 19
  - symbol: Se # 21
    coordinates: [  0.666666666666667,  0.000000000000000,  0.713371449665196 ]
    mass: 78.960000
    reduced_to: 19
  - symbol: Se # 22
    coordinates: [  0.000000000000000,  0.333333333333333,  0.713371449665196 ]
    mass: 78.960000
    reduced_to: 19
  - symbol: Se # 23
    coordinates: [  0.333333333333333,  0.333333333333333,  0.713371449665196 ]
    mass: 78.960000
    reduced_to: 19
  - symbol: Se # 24
    coordinates: [  0.666666666666667,  0.333333333333333,  0.713371449665196 ]
    mass: 78.960000
    reduced_to: 19
  - symbol: Se # 25
    coordinates: [  0.000000000000000,  0.666666666666667,  0.713371449665196 ]
    mass: 78.960000
    reduced_to: 19
  - symbol: Se # 26
    coordinates: [  0.333333333333333,  0.666666666666667,  0.713371449665196 ]
    mass: 78.960000
    reduced_to: 19
  - symbol: Se # 27
    coordinates: [  0.666666666666667,  0.666666666666667,  0.713371449665196 ]
    mass: 78.960000
    reduced_to: 19
  - symbol: Se # 28
    coordinates: [  0.000000000000000,  0.000000000000000,  0.796769240899820 ]
    mass: 78.960000
    reduced_to: 28
  - symbol: Se # 29
    coordinates: [  0.333333333333333,  0.000000000000000,  0.796769240899820 ]
    mass: 78.960000
    reduced_to: 28
  - symbol: Se # 30
    coordinates: [  0.666666666666667,  0.000000000000000,  0.796769240899820 ]
    mass: 78.960000
    reduced_to: 28
  - symbol: Se # 31
    coordinates: [  0.000000000000000,  0.333333333333333,  0.796769240899820 ]
    mass: 78.960000
    reduced_to: 28
  - symbol: Se # 32
    coordinates: [  0.333333333333333,  0.333333333333333,  0.796769240899820 ]
    mass: 78.960000
    reduced_to: 28
  - symbol: Se # 33
    coordinates: [  0.666666666666667,  0.333333333333333,  0.796769240899820 ]
    mass: 78.960000
    reduced_to: 28
  - symbol: Se # 34
    coordinates: [  0.000000000000000,  0.666666666666667,  0.796769240899820 ]
    mass: 78.960000
    reduced_to: 28
  - symbol: Se # 35
    coordinates: [  0.333333333333333,  0.666666666666667,  0.796769240899820 ]
    mass: 78.960000
    reduced_to: 28
  - symbol: Se # 36
    coordinates: [  0.666666666666667,  0.666666666666667,  0.796769240899820 ]
    mass: 78.960000
    reduced_to: 28
  - symbol: Se # 37
    coordinates: [  0.222222222222222,  0.111111111111111,  0.875288638485237 ]
    mass: 78.960000
    reduced_to: 37
  - symbol: Se # 38
    coordinates: [  0.555555555555555,  0.111111111111111,  0.875288638485237 ]
    mass: 78.960000
    reduced_to: 37
  - symbol: Se # 39
    coordinates: [  0.888888888888889,  0.111111111111111,  0.875288638485237 ]
    mass: 78.960000
    reduced_to: 37
  - symbol: Se # 40
    coordinates: [  0.222222222222222,  0.444444444444444,  0.875288638485237 ]
    mass: 78.960000
    reduced_to: 37
  - symbol: Se # 41
    coordinates: [  0.555555555555555,  0.444444444444444,  0.875288638485237 ]
    mass: 78.960000
    reduced_to: 37
  - symbol: Se # 42
    coordinates: [  0.888888888888889,  0.444444444444444,  0.875288638485237 ]
    mass: 78.960000
    reduced_to: 37
  - symbol: Se # 43
    coordinates: [  0.222222222222222,  0.777777777777778,  0.875288638485237 ]
    mass: 78.960000
    reduced_to: 37
  - symbol: Se # 44
    coordinates: [  0.555555555555555,  0.777777777777778,  0.875288638485237 ]
    mass: 78.960000
    reduced_to: 37
  - symbol: Se # 45
    coordinates: [  0.888888888888889,  0.777777777777778,  0.875288638485237 ]
    mass: 78.960000
    reduced_to: 37
  - symbol: Mo # 46
    coordinates: [  0.000000000000000,  0.000000000000000,  0.916932263986823 ]
    mass: 95.960000
    reduced_to: 46
  - symbol: Mo # 47
    coordinates: [  0.333333333333333,  0.000000000000000,  0.916932263986823 ]
    mass: 95.960000
    reduced_to: 46
  - symbol: Mo # 48
    coordinates: [  0.666666666666667,  0.000000000000000,  0.916932263986823 ]
    mass: 95.960000
    reduced_to: 46
  - symbol: Mo # 49
    coordinates: [  0.000000000000000,  0.333333333333333,  0.916932263986823 ]
    mass: 95.960000
    reduced_to: 46
  - symbol: Mo # 50
    coordinates: [  0.333333333333333,  0.333333333333333,  0.916932263986823 ]
    mass: 95.960000
    reduced_to: 46
  - symbol: Mo # 51
    coordinates: [  0.666666666666667,  0.333333333333333,  0.916932263986823 ]
    mass: 95.960000
    reduced_to: 46
  - symbol: Mo # 52
    coordinates: [  0.000000000000000,  0.666666666666667,  0.916932263986823 ]
    mass: 95.960000
    reduced_to: 46
  - symbol: Mo # 53
    coordinates: [  0.333333333333333,  0.666666666666667,  0.916932263986823 ]
    mass: 95.960000
    reduced_to: 46
  - symbol: Mo # 54
    coordinates: [  0.666666666666667,  0.666666666666667,  0.916932263986823 ]
    mass: 95.960000
    reduced_to: 46
