  54   54
1 1
     6.954479060460696    -0.000000000000000     0.000000000000000
    -0.000000000000000     6.954479060460696     0.000000000000001
     0.000000000000000     0.000000000000001     6.954479060460696
1 2
     0.268525671544242    -0.040163067518852    -0.040163067518852
     0.040163067518852    -0.093839022611338    -0.110322284696659
     0.040163067518852    -0.110322284696658    -0.093839022611338
1 3
     0.268525671544242     0.040163067518852     0.040163067518852
    -0.040163067518852    -0.093839022611338    -0.110322284696659
    -0.040163067518852    -0.110322284696659    -0.093839022611338
1 4
    -0.093839022611338     0.040163067518852    -0.110322284696658
    -0.040163067518852     0.268525671544242    -0.040163067518852
    -0.110322284696659     0.040163067518852    -0.093839022611338
1 5
    -0.018349087982331     0.023461789078605    -0.023461789078605
     0.023461789078605    -0.018349087982331    -0.023461789078605
    -0.023461789078605    -0.023461789078605    -0.018349087982331
1 6
    -0.093839022611338     0.110322284696658    -0.040163067518852
     0.110322284696658    -0.093839022611338     0.040163067518852
     0.040163067518852    -0.040163067518852     0.268525671544242
1 7
    -0.093839022611338    -0.040163067518852    -0.110322284696658
     0.040163067518852     0.268525671544242     0.040163067518852
    -0.110322284696659    -0.040163067518852    -0.093839022611338
1 8
    -0.093839022611338     0.110322284696658     0.040163067518852
     0.110322284696658    -0.093839022611338    -0.040163067518852
    -0.040163067518852     0.040163067518852     0.268525671544242
1 9
    -0.018349087982331     0.023461789078605    -0.023461789078605
     0.023461789078605    -0.018349087982331    -0.023461789078605
    -0.023461789078605    -0.023461789078605    -0.018349087982331
1 10
    -0.093839022611338    -0.110322284696658     0.040163067518852
    -0.110322284696658    -0.093839022611338     0.040163067518852
    -0.040163067518852    -0.040163067518852     0.268525671544242
1 11
    -0.018349087982331    -0.023461789078605     0.023461789078605
    -0.023461789078605    -0.018349087982331    -0.023461789078605
     0.023461789078605    -0.023461789078605    -0.018349087982331
1 12
    -0.093839022611338    -0.040163067518852     0.110322284696658
     0.040163067518852     0.268525671544242    -0.040163067518852
     0.110322284696658     0.040163067518852    -0.093839022611338
1 13
    -0.018349087982331    -0.023461789078605    -0.023461789078605
    -0.023461789078605    -0.018349087982331     0.023461789078605
    -0.023461789078605     0.023461789078605    -0.018349087982331
1 14
    -0.018349087982331     0.023461789078605     0.023461789078605
     0.023461789078605    -0.018349087982331     0.023461789078605
     0.023461789078605     0.023461789078605    -0.018349087982331
1 15
    -0.015724529318006     0.000000000000000     0.000000000000000
     0.000000000000000    -0.019928393153128    -0.000000000000000
    -0.000000000000000     0.000000000000000    -0.019928393153128
1 16
     0.268525671544242     0.040163067518852    -0.040163067518852
    -0.040163067518852    -0.093839022611338     0.110322284696658
     0.040163067518852     0.110322284696658    -0.093839022611338
1 17
    -0.019928393153128     0.000000000000000     0.000000000000000
    -0.000000000000000    -0.015724529318006    -0.000000000000000
    -0.000000000000000    -0.000000000000000    -0.019928393153128
1 18
    -0.019928393153128    -0.000000000000000    -0.000000000000000
    -0.000000000000000    -0.019928393153128    -0.000000000000000
    -0.000000000000000    -0.000000000000000    -0.015724529318006
1 19
    -0.093839022611338    -0.110322284696658    -0.040163067518852
    -0.110322284696658    -0.093839022611338    -0.040163067518852
     0.040163067518852     0.040163067518852     0.268525671544242
1 20
    -0.093839022611338     0.040163067518852     0.110322284696658
    -0.040163067518852     0.268525671544242     0.040163067518852
     0.110322284696658    -0.040163067518852    -0.093839022611338
1 21
    -0.018349087982331    -0.023461789078605     0.023461789078605
    -0.023461789078605    -0.018349087982331    -0.023461789078605
     0.023461789078605    -0.023461789078605    -0.018349087982331
1 22
     0.268525671544242    -0.040163067518852     0.040163067518852
     0.040163067518852    -0.093839022611338     0.110322284696658
    -0.040163067518852     0.110322284696658    -0.093839022611338
1 23
    -0.019928393153128     0.000000000000000    -0.000000000000000
     0.000000000000000    -0.019928393153128    -0.000000000000000
    -0.000000000000000    -0.000000000000000    -0.015724529318006
1 24
    -0.019928393153128     0.000000000000000    -0.000000000000000
    -0.000000000000000    -0.015724529318006    -0.000000000000000
    -0.000000000000000    -0.000000000000000    -0.019928393153128
1 25
    -0.018349087982331    -0.023461789078605    -0.023461789078605
    -0.023461789078605    -0.018349087982331     0.023461789078605
    -0.023461789078605     0.023461789078605    -0.018349087982331
1 26
    -0.015724529318006     0.000000000000000    -0.000000000000000
     0.000000000000000    -0.019928393153128    -0.000000000000000
    -0.000000000000000    -0.000000000000000    -0.019928393153128
1 27
    -0.018349087982331     0.023461789078605     0.023461789078605
     0.023461789078605    -0.018349087982331     0.023461789078605
     0.023461789078605     0.023461789078605    -0.018349087982331
1 28
    -1.724918356588282    -1.194901081834761    -1.194901081834761
    -1.194901081834761    -1.724918356588283    -1.194901081834761
    -1.194901081834761    -1.194901081834761    -1.724918356588283
1 29
    -1.724918356588283     1.194901081834761     1.194901081834761
     1.194901081834761    -1.724918356588283    -1.194901081834761
     1.194901081834761    -1.194901081834761    -1.724918356588283
1 30
    -0.183509840989860     0.000000000000000     0.000000000000000
     0.000000000000000    -0.016276636230361    -0.002852944873873
    -0.000000000000000    -0.002852944873873    -0.016276636230361
1 31
    -1.724918356588282     1.194901081834761    -1.194901081834761
     1.194901081834761    -1.724918356588283     1.194901081834761
    -1.194901081834761     1.194901081834761    -1.724918356588283
1 32
     0.027636807068204    -0.034246411484036     0.022859789963937
    -0.034246411484036     0.027636807068204     0.022859789963937
     0.022859789963937     0.022859789963937     0.002998236963184
1 33
     0.027636807068204    -0.022859789963937     0.034246411484036
    -0.022859789963937     0.002998236963184     0.022859789963937
     0.034246411484036     0.022859789963937     0.027636807068204
1 34
    -0.016276636230361     0.000000000000000    -0.002852944873873
     0.000000000000000    -0.183509840989860    -0.000000000000000
    -0.002852944873873    -0.000000000000000    -0.016276636230361
1 35
     0.002998236963184    -0.022859789963937     0.022859789963937
    -0.022859789963937     0.027636807068204     0.034246411484036
     0.022859789963937     0.034246411484036     0.027636807068204
1 36
    -0.016276636230361     0.002852944873873    -0.000000000000000
     0.002852944873873    -0.016276636230361    -0.000000000000000
    -0.000000000000000    -0.000000000000000    -0.183509840989860
1 37
    -1.724918356588282    -1.194901081834761     1.194901081834761
    -1.194901081834761    -1.724918356588283     1.194901081834761
     1.194901081834761     1.194901081834761    -1.724918356588283
1 38
     0.027636807068204     0.022859789963937    -0.034246411484036
     0.022859789963937     0.002998236963184     0.022859789963937
    -0.034246411484036     0.022859789963937     0.027636807068204
1 39
     0.027636807068204     0.034246411484036    -0.022859789963937
     0.034246411484036     0.027636807068204     0.022859789963937
    -0.022859789963937     0.022859789963937     0.002998236963184
1 40
     0.002998236963184     0.022859789963937     0.022859789963937
     0.022859789963937     0.027636807068204    -0.034246411484036
     0.022859789963937    -0.034246411484036     0.027636807068204
1 41
     0.017248687792913     0.000000000000000    -0.000000000000000
     0.000000000000000     0.017248687792913    -0.000000000000000
    -0.000000000000000    -0.000000000000000     0.017248687792913
1 42
     0.002998236963184    -0.022859789963937    -0.022859789963937
    -0.022859789963937     0.027636807068204    -0.034246411484036
    -0.022859789963937    -0.034246411484036     0.027636807068204
1 43
     0.027636807068204     0.034246411484036     0.022859789963937
     0.034246411484036     0.027636807068204    -0.022859789963937
     0.022859789963937    -0.022859789963937     0.002998236963184
1 44
     0.027636807068204    -0.022859789963937    -0.034246411484036
    -0.022859789963937     0.002998236963184    -0.022859789963937
    -0.034246411484036    -0.022859789963937     0.027636807068204
1 45
     0.015387332605806     0.002915900505682    -0.002915900505682
     0.002915900505682     0.015387332605806    -0.002915900505682
    -0.002915900505682    -0.002915900505682     0.015387332605806
1 46
    -0.016276636230361    -0.002852944873873    -0.000000000000000
    -0.002852944873873    -0.016276636230361    -0.000000000000000
    -0.000000000000000    -0.000000000000000    -0.183509840989860
1 47
     0.002998236963184     0.022859789963937    -0.022859789963937
     0.022859789963937     0.027636807068204     0.034246411484036
    -0.022859789963937     0.034246411484036     0.027636807068204
1 48
    -0.016276636230361     0.000000000000000     0.002852944873873
     0.000000000000000    -0.183509840989860    -0.000000000000000
     0.002852944873873    -0.000000000000000    -0.016276636230361
1 49
     0.027636807068204     0.022859789963937     0.034246411484036
     0.022859789963937     0.002998236963184    -0.022859789963937
     0.034246411484036    -0.022859789963937     0.027636807068204
1 50
     0.027636807068204    -0.034246411484036    -0.022859789963937
    -0.034246411484036     0.027636807068204    -0.022859789963937
    -0.022859789963937    -0.022859789963937     0.002998236963184
1 51
     0.015387332605806    -0.002915900505682     0.002915900505682
    -0.002915900505682     0.015387332605806    -0.002915900505682
     0.002915900505682    -0.002915900505682     0.015387332605806
1 52
    -0.183509840989860     0.000000000000000    -0.000000000000000
     0.000000000000000    -0.016276636230361     0.002852944873873
    -0.000000000000000     0.002852944873873    -0.016276636230361
1 53
     0.015387332605806    -0.002915900505682    -0.002915900505682
    -0.002915900505682     0.015387332605806     0.002915900505682
    -0.002915900505682     0.002915900505682     0.015387332605806
1 54
     0.015387332605806     0.002915900505682     0.002915900505682
     0.002915900505682     0.015387332605806     0.002915900505682
     0.002915900505682     0.002915900505682     0.015387332605806
2 1
     0.268525671544242     0.040163067518852     0.040163067518852
    -0.040163067518852    -0.093839022611338    -0.110322284696658
    -0.040163067518852    -0.110322284696659    -0.093839022611338
2 2
     6.954479060460699     0.000000000000000    -0.000000000000000
     0.000000000000000     6.954479060460696     0.000000000000000
    -0.000000000000000     0.000000000000000     6.954479060460697
2 3
     0.268525671544242    -0.040163067518852    -0.040163067518852
     0.040163067518852    -0.093839022611338    -0.110322284696658
     0.040163067518852    -0.110322284696658    -0.093839022611338
2 4
    -0.093839022611338     0.110322284696659    -0.040163067518852
     0.110322284696658    -0.093839022611338     0.040163067518852
     0.040163067518852    -0.040163067518852     0.268525671544242
2 5
    -0.093839022611338     0.040163067518852    -0.110322284696658
    -0.040163067518852     0.268525671544242    -0.040163067518852
    -0.110322284696658     0.040163067518852    -0.093839022611338
2 6
    -0.018349087982331     0.023461789078605    -0.023461789078605
     0.023461789078605    -0.018349087982331    -0.023461789078605
    -0.023461789078605    -0.023461789078605    -0.018349087982331
2 7
    -0.018349087982331     0.023461789078605    -0.023461789078605
     0.023461789078605    -0.018349087982331    -0.023461789078605
    -0.023461789078605    -0.023461789078605    -0.018349087982331
2 8
    -0.093839022611338    -0.040163067518852    -0.110322284696658
     0.040163067518852     0.268525671544242     0.040163067518852
    -0.110322284696658    -0.040163067518852    -0.093839022611338
2 9
    -0.093839022611338     0.110322284696659     0.040163067518852
     0.110322284696658    -0.093839022611338    -0.040163067518852
    -0.040163067518852     0.040163067518852     0.268525671544242
2 10
    -0.093839022611338    -0.040163067518852     0.110322284696659
     0.040163067518852     0.268525671544242    -0.040163067518852
     0.110322284696659     0.040163067518852    -0.093839022611338
2 11
    -0.093839022611338    -0.110322284696658     0.040163067518852
    -0.110322284696658    -0.093839022611338     0.040163067518852
    -0.040163067518852    -0.040163067518852     0.268525671544242
2 12
    -0.018349087982331    -0.023461789078605     0.023461789078605
    -0.023461789078605    -0.018349087982331    -0.023461789078605
     0.023461789078605    -0.023461789078605    -0.018349087982331
2 13
    -0.015724529318006     0.000000000000000    -0.000000000000000
     0.000000000000000    -0.019928393153128    -0.000000000000000
     0.000000000000000    -0.000000000000000    -0.019928393153128
2 14
    -0.018349087982331    -0.023461789078605    -0.023461789078605
    -0.023461789078605    -0.018349087982331     0.023461789078605
    -0.023461789078605     0.023461789078605    -0.018349087982331
2 15
    -0.018349087982331     0.023461789078605     0.023461789078605
     0.023461789078605    -0.018349087982331     0.023461789078605
     0.023461789078605     0.023461789078605    -0.018349087982331
2 16
    -0.019928393153128     0.000000000000000     0.000000000000000
    -0.000000000000000    -0.019928393153128     0.000000000000000
     0.000000000000000    -0.000000000000000    -0.015724529318006
2 17
     0.268525671544242     0.040163067518852    -0.040163067518852
    -0.040163067518852    -0.093839022611338     0.110322284696658
     0.040163067518852     0.110322284696658    -0.093839022611338
2 18
    -0.019928393153128    -0.000000000000000     0.000000000000000
    -0.000000000000000    -0.015724529318006    -0.000000000000000
     0.000000000000000    -0.000000000000000    -0.019928393153128
2 19
    -0.018349087982331    -0.023461789078605     0.023461789078605
    -0.023461789078605    -0.018349087982331    -0.023461789078605
     0.023461789078605    -0.023461789078605    -0.018349087982331
2 20
    -0.093839022611338    -0.110322284696658    -0.040163067518852
    -0.110322284696658    -0.093839022611338    -0.040163067518852
     0.040163067518852     0.040163067518852     0.268525671544242
2 21
    -0.093839022611338     0.040163067518852     0.110322284696659
    -0.040163067518852     0.268525671544242     0.040163067518852
     0.110322284696659    -0.040163067518852    -0.093839022611338
2 22
    -0.019928393153128    -0.000000000000000    -0.000000000000000
    -0.000000000000000    -0.015724529318006     0.000000000000000
     0.000000000000000    -0.000000000000000    -0.019928393153128
2 23
     0.268525671544242    -0.040163067518852     0.040163067518852
     0.040163067518852    -0.093839022611338     0.110322284696658
    -0.040163067518852     0.110322284696658    -0.093839022611338
2 24
    -0.019928393153128     0.000000000000000    -0.000000000000000
    -0.000000000000000    -0.019928393153128     0.000000000000000
     0.000000000000000    -0.000000000000000    -0.015724529318006
2 25
    -0.018349087982331     0.023461789078605     0.023461789078605
     0.023461789078605    -0.018349087982331     0.023461789078605
     0.023461789078605     0.023461789078605    -0.018349087982331
2 26
    -0.018349087982331    -0.023461789078605    -0.023461789078605
    -0.023461789078605    -0.018349087982331     0.023461789078605
    -0.023461789078605     0.023461789078605    -0.018349087982331
2 27
    -0.015724529318006     0.000000000000000    -0.000000000000000
    -0.000000000000000    -0.019928393153128    -0.000000000000000
     0.000000000000000    -0.000000000000000    -0.019928393153128
2 28
    -0.183509840989860     0.000000000000000    -0.000000000000000
    -0.000000000000000    -0.016276636230361    -0.002852944873873
     0.000000000000000    -0.002852944873873    -0.016276636230361
2 29
    -1.724918356588282    -1.194901081834761    -1.194901081834761
    -1.194901081834761    -1.724918356588283    -1.194901081834761
    -1.194901081834761    -1.194901081834761    -1.724918356588282
2 30
    -1.724918356588283     1.194901081834761     1.194901081834761
     1.194901081834761    -1.724918356588282    -1.194901081834761
     1.194901081834761    -1.194901081834761    -1.724918356588282
2 31
     0.027636807068204    -0.022859789963937     0.034246411484036
    -0.022859789963937     0.002998236963184     0.022859789963937
     0.034246411484036     0.022859789963937     0.027636807068204
2 32
    -1.724918356588283     1.194901081834761    -1.194901081834761
     1.194901081834761    -1.724918356588282     1.194901081834761
    -1.194901081834761     1.194901081834761    -1.724918356588282
2 33
     0.027636807068204    -0.034246411484036     0.022859789963937
    -0.034246411484036     0.027636807068204     0.022859789963937
     0.022859789963937     0.022859789963937     0.002998236963184
2 34
    -0.016276636230361     0.002852944873873     0.000000000000000
     0.002852944873873    -0.016276636230361     0.000000000000000
     0.000000000000000     0.000000000000000    -0.183509840989860
2 35
    -0.016276636230361     0.000000000000000    -0.002852944873873
    -0.000000000000000    -0.183509840989860    -0.000000000000000
    -0.002852944873873    -0.000000000000000    -0.016276636230361
2 36
     0.002998236963184    -0.022859789963937     0.022859789963937
    -0.022859789963937     0.027636807068204     0.034246411484036
     0.022859789963937     0.034246411484036     0.027636807068204
2 37
     0.027636807068204     0.034246411484036    -0.022859789963937
     0.034246411484036     0.027636807068204     0.022859789963937
    -0.022859789963937     0.022859789963937     0.002998236963184
2 38
    -1.724918356588283    -1.194901081834761     1.194901081834761
    -1.194901081834761    -1.724918356588283     1.194901081834761
     1.194901081834761     1.194901081834761    -1.724918356588283
2 39
     0.027636807068204     0.022859789963937    -0.034246411484036
     0.022859789963937     0.002998236963184     0.022859789963937
    -0.034246411484036     0.022859789963937     0.027636807068204
2 40
     0.002998236963184    -0.022859789963937    -0.022859789963937
    -0.022859789963937     0.027636807068204    -0.034246411484036
    -0.022859789963937    -0.034246411484036     0.027636807068204
2 41
     0.002998236963184     0.022859789963937     0.022859789963937
     0.022859789963937     0.027636807068204    -0.034246411484036
     0.022859789963937    -0.034246411484036     0.027636807068204
2 42
     0.017248687792913     0.000000000000000    -0.000000000000000
    -0.000000000000000     0.017248687792913     0.000000000000000
     0.000000000000000    -0.000000000000000     0.017248687792913
2 43
     0.015387332605806     0.002915900505682    -0.002915900505682
     0.002915900505682     0.015387332605806    -0.002915900505682
    -0.002915900505682    -0.002915900505682     0.015387332605806
2 44
     0.027636807068204     0.034246411484036     0.022859789963937
     0.034246411484036     0.027636807068204    -0.022859789963937
     0.022859789963937    -0.022859789963937     0.002998236963184
2 45
     0.027636807068204    -0.022859789963937    -0.034246411484036
    -0.022859789963937     0.002998236963184    -0.022859789963937
    -0.034246411484036    -0.022859789963937     0.027636807068204
2 46
    -0.016276636230361     0.000000000000000     0.002852944873873
    -0.000000000000000    -0.183509840989860    -0.000000000000000
     0.002852944873873     0.000000000000000    -0.016276636230361
2 47
    -0.016276636230361    -0.002852944873873     0.000000000000000
    -0.002852944873873    -0.016276636230361    -0.000000000000000
     0.000000000000000    -0.000000000000000    -0.183509840989860
2 48
     0.002998236963184     0.022859789963937    -0.022859789963937
     0.022859789963937     0.027636807068204     0.034246411484036
    -0.022859789963937     0.034246411484036     0.027636807068204
2 49
     0.015387332605806    -0.002915900505682     0.002915900505682
    -0.002915900505682     0.015387332605806    -0.002915900505682
     0.002915900505682    -0.002915900505682     0.015387332605806
2 50
     0.027636807068204     0.022859789963937     0.034246411484036
     0.022859789963937     0.002998236963184    -0.022859789963937
     0.034246411484036    -0.022859789963937     0.027636807068204
2 51
     0.027636807068204    -0.034246411484036    -0.022859789963937
    -0.034246411484036     0.027636807068204    -0.022859789963937
    -0.022859789963937    -0.022859789963937     0.002998236963184
2 52
     0.015387332605806     0.002915900505682     0.002915900505682
     0.002915900505682     0.015387332605806     0.002915900505682
     0.002915900505682     0.002915900505682     0.015387332605806
2 53
    -0.183509840989860     0.000000000000000     0.000000000000000
    -0.000000000000000    -0.016276636230361     0.002852944873873
     0.000000000000000     0.002852944873873    -0.016276636230361
2 54
     0.015387332605806    -0.002915900505682    -0.002915900505682
    -0.002915900505682     0.015387332605806     0.002915900505682
    -0.002915900505682     0.002915900505682     0.015387332605806
3 1
     0.268525671544242    -0.040163067518852    -0.040163067518852
     0.040163067518852    -0.093839022611338    -0.110322284696659
     0.040163067518852    -0.110322284696659    -0.093839022611338
3 2
     0.268525671544242     0.040163067518852     0.040163067518852
    -0.040163067518852    -0.093839022611338    -0.110322284696658
    -0.040163067518852    -0.110322284696658    -0.093839022611338
3 3
     6.954479060460699    -0.000000000000000     0.000000000000001
    -0.000000000000000     6.954479060460695     0.000000000000000
     0.000000000000001     0.000000000000000     6.954479060460695
3 4
    -0.018349087982331     0.023461789078605    -0.023461789078605
     0.023461789078605    -0.018349087982331    -0.023461789078605
    -0.023461789078605    -0.023461789078605    -0.018349087982331
3 5
    -0.093839022611338     0.110322284696658    -0.040163067518852
     0.110322284696658    -0.093839022611338     0.040163067518852
     0.040163067518852    -0.040163067518852     0.268525671544242
3 6
    -0.093839022611338     0.040163067518852    -0.110322284696659
    -0.040163067518852     0.268525671544242    -0.040163067518852
    -0.110322284696658     0.040163067518852    -0.093839022611338
3 7
    -0.093839022611338     0.110322284696658     0.040163067518852
     0.110322284696658    -0.093839022611338    -0.040163067518852
    -0.040163067518852     0.040163067518852     0.268525671544242
3 8
    -0.018349087982331     0.023461789078605    -0.023461789078605
     0.023461789078605    -0.018349087982331    -0.023461789078605
    -0.023461789078605    -0.023461789078605    -0.018349087982331
3 9
    -0.093839022611338    -0.040163067518852    -0.110322284696659
     0.040163067518852     0.268525671544242     0.040163067518852
    -0.110322284696659    -0.040163067518852    -0.093839022611338
3 10
    -0.018349087982331    -0.023461789078605     0.023461789078605
    -0.023461789078605    -0.018349087982331    -0.023461789078605
     0.023461789078605    -0.023461789078605    -0.018349087982331
3 11
    -0.093839022611338    -0.040163067518852     0.110322284696658
     0.040163067518852     0.268525671544242    -0.040163067518852
     0.110322284696658     0.040163067518852    -0.093839022611338
3 12
    -0.093839022611338    -0.110322284696659     0.040163067518852
    -0.110322284696659    -0.093839022611338     0.040163067518852
    -0.040163067518852    -0.040163067518852     0.268525671544242
3 13
    -0.018349087982331     0.023461789078605     0.023461789078605
     0.023461789078605    -0.018349087982331     0.023461789078605
     0.023461789078605     0.023461789078605    -0.018349087982331
3 14
    -0.015724529318006    -0.000000000000000    -0.000000000000000
     0.000000000000000    -0.019928393153128    -0.000000000000000
    -0.000000000000000    -0.000000000000000    -0.019928393153128
3 15
    -0.018349087982331    -0.023461789078605    -0.023461789078605
    -0.023461789078605    -0.018349087982331     0.023461789078605
    -0.023461789078605     0.023461789078605    -0.018349087982331
3 16
    -0.019928393153128     0.000000000000000     0.000000000000000
    -0.000000000000000    -0.015724529318006     0.000000000000000
    -0.000000000000000     0.000000000000000    -0.019928393153128
3 17
    -0.019928393153128    -0.000000000000000     0.000000000000000
    -0.000000000000000    -0.019928393153128     0.000000000000000
    -0.000000000000000    -0.000000000000000    -0.015724529318006
3 18
     0.268525671544242     0.040163067518852    -0.040163067518852
    -0.040163067518852    -0.093839022611338     0.110322284696658
     0.040163067518852     0.110322284696658    -0.093839022611338
3 19
    -0.093839022611338     0.040163067518852     0.110322284696658
    -0.040163067518852     0.268525671544242     0.040163067518852
     0.110322284696658    -0.040163067518852    -0.093839022611338
3 20
    -0.018349087982331    -0.023461789078605     0.023461789078605
    -0.023461789078605    -0.018349087982331    -0.023461789078605
     0.023461789078605    -0.023461789078605    -0.018349087982331
3 21
    -0.093839022611338    -0.110322284696659    -0.040163067518852
    -0.110322284696658    -0.093839022611338    -0.040163067518852
     0.040163067518852     0.040163067518852     0.268525671544242
3 22
    -0.019928393153128    -0.000000000000000    -0.000000000000000
     0.000000000000000    -0.019928393153128     0.000000000000000
    -0.000000000000000    -0.000000000000000    -0.015724529318006
3 23
    -0.019928393153128     0.000000000000000    -0.000000000000000
     0.000000000000000    -0.015724529318006     0.000000000000000
    -0.000000000000000    -0.000000000000000    -0.019928393153128
3 24
     0.268525671544242    -0.040163067518852     0.040163067518852
     0.040163067518852    -0.093839022611338     0.110322284696658
    -0.040163067518852     0.110322284696658    -0.093839022611338
3 25
    -0.015724529318006    -0.000000000000000    -0.000000000000000
     0.000000000000000    -0.019928393153128    -0.000000000000000
    -0.000000000000000    -0.000000000000000    -0.019928393153128
3 26
    -0.018349087982331     0.023461789078605     0.023461789078605
     0.023461789078605    -0.018349087982331     0.023461789078605
     0.023461789078605     0.023461789078605    -0.018349087982331
3 27
    -0.018349087982331    -0.023461789078605    -0.023461789078605
    -0.023461789078605    -0.018349087982331     0.023461789078605
    -0.023461789078605     0.023461789078605    -0.018349087982331
3 28
    -1.724918356588282     1.194901081834761     1.194901081834761
     1.194901081834761    -1.724918356588283    -1.194901081834761
     1.194901081834761    -1.194901081834761    -1.724918356588282
3 29
    -0.183509840989860     0.000000000000000     0.000000000000000
     0.000000000000000    -0.016276636230361    -0.002852944873873
    -0.000000000000000    -0.002852944873873    -0.016276636230361
3 30
    -1.724918356588283    -1.194901081834761    -1.194901081834761
    -1.194901081834761    -1.724918356588282    -1.194901081834761
    -1.194901081834761    -1.194901081834761    -1.724918356588282
3 31
     0.027636807068204    -0.034246411484036     0.022859789963937
    -0.034246411484036     0.027636807068204     0.022859789963937
     0.022859789963937     0.022859789963937     0.002998236963184
3 32
     0.027636807068204    -0.022859789963937     0.034246411484036
    -0.022859789963937     0.002998236963184     0.022859789963937
     0.034246411484036     0.022859789963937     0.027636807068204
3 33
    -1.724918356588283     1.194901081834761    -1.194901081834761
     1.194901081834761    -1.724918356588283     1.194901081834761
    -1.194901081834761     1.194901081834761    -1.724918356588283
3 34
     0.002998236963184    -0.022859789963937     0.022859789963937
    -0.022859789963937     0.027636807068204     0.034246411484036
     0.022859789963937     0.034246411484036     0.027636807068204
3 35
    -0.016276636230361     0.002852944873873    -0.000000000000000
     0.002852944873873    -0.016276636230361    -0.000000000000000
    -0.000000000000000    -0.000000000000000    -0.183509840989860
3 36
    -0.016276636230361    -0.000000000000000    -0.002852944873873
    -0.000000000000000    -0.183509840989860     0.000000000000000
    -0.002852944873873     0.000000000000000    -0.016276636230361
3 37
     0.027636807068204     0.022859789963937    -0.034246411484036
     0.022859789963937     0.002998236963184     0.022859789963937
    -0.034246411484036     0.022859789963937     0.027636807068204
3 38
     0.027636807068204     0.034246411484036    -0.022859789963937
     0.034246411484036     0.027636807068204     0.022859789963937